 Gaussian 09, Revision D.01,
 Gaussian 09:  AS64L-G09RevD.01 24-Apr-2013

 -------------------------------------------------
 # opt freq b3lyp/6-31(d) Integral(Grid=UltraFine)
 -------------------------------------------------

 -----
 Title
 -----
 Symbolic Z-matrix:
 Charge =  0 Multiplicity = 1

 SCF Done:  E(RB3LYP) =  -229.070387091     A.U. after   13 cycles
 SCF Done:  E(RB3LYP) =  -229.081092846     A.U. after   12 cycles
 SCF Done:  E(RB3LYP) =  -229.081722201     A.U. after   11 cycles
 SCF Done:  E(RB3LYP) =  -229.081782109     A.U. after    9 cycles
 SCF Done:  E(RB3LYP) =  -229.081786353     A.U. after    8 cycles
 Optimization completed.
    -- Stationary point found.
 Normal termination of Gaussian 09 at Wed Feb  7 13:26:56 2018.

 --------------------------------------------------------------------
 #N Geom=AllCheck Guess=TCheck SCRF=Check GenChk RB3LYP/6-31G(d) Freq
 --------------------------------------------------------------------

 Structure from the checkpoint file:  "/tmp/Gau-19523.chk"
 -----
 Title
 -----
 Charge =  0 Multiplicity = 1

                         Standard orientation:
 ---------------------------------------------------------------------
 Center     Atomic      Atomic             Coordinates (Angstroms)
 Number     Number       Type             X           Y           Z
 ---------------------------------------------------------------------
      1          6           0       -1.397557   -0.110322    0.000001
      2          6           0        0.092200    0.125808   -0.000008
      3          1           0       -1.917893    0.847496    0.000008
      4          1           0       -1.684244   -0.692408    0.882027
      5          1           0       -1.684255   -0.692402   -0.882023
      6          8           0        0.645075    1.202214    0.000002
      7          8           0        0.779237   -1.046432    0.000001
      8          1           0        1.724045   -0.801860    0.000005
 ---------------------------------------------------------------------

 SCF Done:  E(RB3LYP) =  -229.081786353     A.U. after    1 cycles

 The electronic state is 1-A.
 Alpha  occ. eigenvalues --  -19.19567 -19.13904 -10.32364 -10.20062  -1.10411
 Alpha  occ. eigenvalues --   -1.01386  -0.75833  -0.60947  -0.48835  -0.47477
 Alpha  occ. eigenvalues --   -0.46706  -0.41249  -0.39318  -0.39198  -0.31839
 Alpha  occ. eigenvalues --   -0.27540
 Alpha virt. eigenvalues --    0.00980   0.07421   0.11541   0.15616   0.16977
 Alpha virt. eigenvalues --    0.21381   0.28876   0.33183   0.52252   0.54087
 Alpha virt. eigenvalues --    0.58307   0.60386   0.62024   0.67076   0.76111

 Mulliken charges:
               1
     1  C   -0.515261
     2  C    0.555764
     3  H    0.186250
     4  H    0.185921
     5  H    0.185920
     6  O   -0.450796
     7  O   -0.556177
     8  H    0.408380
 Sum of Mulliken charges =   0.00000

 Dipole moment (field-independent basis, Debye):
    X=             -0.5791    Y=             -1.4688    Z=              0.0000  Tot=              1.5788
 Quadrupole moment (field-independent basis, Debye-Ang):
   XX=            -18.6697   YY=            -27.7925   ZZ=            -22.6904
   XY=             -2.1404   XZ=              0.0000   YZ=              0.0000

  Exact polarizability:  30.998   0.680  29.753   0.000   0.000  18.685
 Approx polarizability:  38.210   3.573  48.963   0.000   0.000  25.458

                      1                      2                      3
                      A                      A                      A
 Frequencies --     78.8844               419.7955               546.4799
 Red. masses --      1.0856                 2.9106                 1.6741
 Frc consts  --      0.0040                 0.3022                 0.2946
 IR Inten    --      0.6069                 4.3573                18.9666

                      4                      5                      6
                      A                      A                      A
 Frequencies --    582.2262               689.5822               866.1775
 Red. masses --      4.2362                 1.4216                 3.8528
 Frc consts  --      0.8461                 0.3983                 1.7031
 IR Inten    --     42.3766               110.8095                 2.6501

                      7                      8                      9
                      A                      A                      A
 Frequencies --   1009.5584              1079.9015              1226.7493
 Red. masses --      1.6106                 1.7679                 1.9643
 Frc consts  --      0.9672                 1.2147                 1.7417
 IR Inten    --     60.0994                 9.1809               214.3488

                     10                     11                     12
                      A                      A                      A
 Frequencies --   1364.4641              1433.9305              1501.0157
 Red. masses --      1.7779                 1.5500                 1.0528
 Frc consts  --      1.9502                 1.8778                 1.3976
 IR Inten    --     26.5732                54.4103                13.8221

                     13                     14                     15
                      A                      A                      A
 Frequencies --   1505.2280              1857.7601              3072.8175
 Red. masses --      1.0460                 9.1934                 1.0374
 Frc consts  --      1.3963                18.6942                 5.7711
 IR Inten    --      8.5869               286.4306                 2.0390

                     16                     17                     18
                      A                      A                      A
 Frequencies --   3134.4438              3187.6221              3683.1704
 Red. masses --      1.1005                 1.1032                 1.0640
 Frc consts  --      6.3704                 6.6042                 8.5040
 IR Inten    --      5.5469                 6.1395                40.7594

 - Thermochemistry -
 -------------------
 Temperature   298.150 Kelvin.  Pressure   1.00000 Atm.
 Atom     1 has atomic number  6 and mass  12.00000

 Molecular mass:    60.02113 amu.
 Principal axes and moments of inertia in atomic units:
                           1         2         3
     Eigenvalues --   160.00500 191.86933 340.67468
           X            0.99778  -0.06653   0.00000
           Y            0.06653   0.99778   0.00000
           Z            0.00000   0.00000   1.00000
 This molecule is an asymmetric top.
 Rotational symmetry number  1.
 Rotational temperatures (Kelvin)      0.54132     0.45142     0.25424
 Rotational constants (GHZ):          11.27928     9.40610     5.29755
 Zero-point vibrational energy     162930.2 (Joules/Mol)
                                   38.94126 (Kcal/Mol)
 Warning -- explicit consideration of   4 degrees of freedom as
           vibrations may cause significant error
 Vibrational temperatures:    113.50   603.99   786.26   837.69   992.15
          (Kelvin)           1246.23  1452.53  1553.74  1765.02  1963.16
                             2063.10  2159.62  2165.68  2672.90  4421.09
                             4509.76  4586.27  5299.25

 Zero-point correction=                           0.062057 (Hartree/Particle)
 Thermal correction to Energy=                    0.066599
 Thermal correction to Enthalpy=                  0.067544
 Thermal correction to Gibbs Free Energy=         0.034931
 Sum of electronic and zero-point Energies=           -229.019730
 Sum of electronic and thermal Energies=              -229.015187
 Sum of electronic and thermal Enthalpies=            -229.014243
 Sum of electronic and thermal Free Energies=         -229.046855

                     E (Thermal)             CV                S
                      KCal/Mol        Cal/Mol-Kelvin    Cal/Mol-Kelvin
 Total                   41.792             14.202             68.638
 Electronic               0.000              0.000              0.000
 Translational            0.889              2.981             38.196
 Rotational               0.889              2.981             23.862
 Vibrational             40.014              8.240              6.579
 Vibration     1          0.600              1.963              3.918
 Vibration     2          0.782              1.427              0.893
 Vibration     3          0.902              1.147              0.552
 Vibration     4          0.939              1.070              0.481

 Optimization completed.
    -- Stationary point found.
 Normal termination of Gaussian 09 at Wed Feb  7 13:29:16 2018.
