 Gaussian 09, Revision D.01,
 Gaussian 09:  AS64L-G09RevD.01 24-Apr-2013

 -------------------------------------------------
 # opt freq b3lyp/6-31(d) Integral(Grid=UltraFine)
 -------------------------------------------------

 -----
 Title
 -----
 Symbolic Z-matrix:
 Charge =  0 Multiplicity = 1

 SCF Done:  E(RB3LYP) =  -40.5177412042     A.U. after    8 cycles
 SCF Done:  E(RB3LYP) =  -40.5183824146     A.U. after    8 cycles
 Optimization completed.
    -- Stationary point found.
 Normal termination of Gaussian 09 at Tue Feb  6 11:27:04 2018.

 --------------------------------------------------------------------
 #N Geom=AllCheck Guess=TCheck SCRF=Check GenChk RB3LYP/6-31G(d) Freq
 --------------------------------------------------------------------

 Structure from the checkpoint file:  "/tmp/Gau-26424.chk"
 -----
 Title
 -----
 Charge =  0 Multiplicity = 1

                         Standard orientation:
 ---------------------------------------------------------------------
 Center     Atomic      Atomic             Coordinates (Angstroms)
 Number     Number       Type             X           Y           Z
 ---------------------------------------------------------------------
      1          6           0        0.000000    0.000000    0.000000
      2          1           0        0.104513   -1.062324   -0.233353
      3          1           0       -0.827232    0.139450    0.700107
      4          1           0       -0.202327    0.556441   -0.918338
      5          1           0        0.925045    0.366433    0.451583
 ---------------------------------------------------------------------

 SCF Done:  E(RB3LYP) =  -40.5183824146     A.U. after    1 cycles

 The electronic state is 1-A.
 Alpha  occ. eigenvalues --  -10.16669  -0.69048  -0.38917  -0.38917  -0.38917
 Alpha virt. eigenvalues --    0.11807   0.17673   0.17673   0.17673   0.53307
 Alpha virt. eigenvalues --    0.53307   0.53307   0.89819   0.89819   0.89819
 Alpha virt. eigenvalues --    0.94837   1.10004   1.65640   1.65640   2.24443

 Mulliken charges:
               1
     1  C   -0.628454
     2  H    0.157113
     3  H    0.157113
     4  H    0.157113
     5  H    0.157114
 Sum of Mulliken charges =   0.00000

 Dipole moment (field-independent basis, Debye):
    X=              0.0000    Y=              0.0000    Z=              0.0000  Tot=              0.0000
 Quadrupole moment (field-independent basis, Debye-Ang):
   XX=             -8.2498   YY=             -8.2498   ZZ=             -8.2498
   XY=              0.0000   XZ=              0.0000   YZ=              0.0000

  Exact polarizability:  12.337   0.000  12.337   0.000   0.000  12.337
 Approx polarizability:  14.581   0.000  14.581   0.000   0.000  14.581

                      1                      2                      3
                      A                      A                      A
 Frequencies --   1371.8906              1371.8984              1371.9183
 Red. masses --      1.1787                 1.1787                 1.1787
 Frc consts  --      1.3071                 1.3071                 1.3071
 IR Inten    --     15.4923                15.4922                15.4924

                      4                      5                      6
                      A                      A                      A
 Frequencies --   1592.7681              1592.7798              3058.5570
 Red. masses --      1.0078                 1.0078                 1.0078
 Frc consts  --      1.5064                 1.5064                 5.5548
 IR Inten    --      0.0000                 0.0000                 0.0000

                      7                      8                      9
                      A                      A                      A
 Frequencies --   3168.8836              3168.8920              3168.9032
 Red. masses --      1.1019                 1.1019                 1.1019
 Frc consts  --      6.5193                 6.5193                 6.5193
 IR Inten    --     26.2919                26.2926                26.2921

 - Thermochemistry -
 -------------------
 Temperature   298.150 Kelvin.  Pressure   1.00000 Atm.
 Atom     1 has atomic number  6 and mass  12.00000

 Molecular mass:    16.03130 amu.
 Principal axes and moments of inertia in atomic units:
                           1         2         3
     Eigenvalues --    11.45836  11.45836  11.45838
           X            1.00000   0.00000   0.00000
           Y            0.00000   1.00000   0.00000
           Z            0.00000   0.00000   1.00000
 This molecule is an asymmetric top.
 Rotational symmetry number  1.
 Rotational temperatures (Kelvin)      7.55901     7.55901     7.55900
 Rotational constants (GHZ):         157.50436   157.50430   157.50411
 Zero-point vibrational energy     118828.0 (Joules/Mol)
                                   28.40057 (Kcal/Mol)
 Vibrational temperatures:   1973.84  1973.85  1973.88  2291.64  2291.65
          (Kelvin)           4400.58  4559.31  4559.32  4559.34

 Zero-point correction=                           0.045259 (Hartree/Particle)
 Thermal correction to Energy=                    0.048123
 Thermal correction to Enthalpy=                  0.049068
 Thermal correction to Gibbs Free Energy=         0.025591
 Sum of electronic and zero-point Energies=            -40.473123
 Sum of electronic and thermal Energies=               -40.470259
 Sum of electronic and thermal Enthalpies=             -40.469315
 Sum of electronic and thermal Free Energies=          -40.492791

                     E (Thermal)             CV                S
                      KCal/Mol        Cal/Mol-Kelvin    Cal/Mol-Kelvin
 Total                   30.198              6.419             49.410
 Electronic               0.000              0.000              0.000
 Translational            0.889              2.981             34.261
 Rotational               0.889              2.981             15.072
 Vibrational             28.420              0.458              0.077

 Optimization completed.
    -- Stationary point found.
 Normal termination of Gaussian 09 at Tue Feb  6 11:27:27 2018.
