 Gaussian 09, Revision D.01,
 Gaussian 09:  AS64L-G09RevD.01 24-Apr-2013

 -------------------------------------------------
 # opt freq b3lyp/6-31(d) Integral(Grid=UltraFine)
 -------------------------------------------------

 -----
 Title
 -----
 Symbolic Z-matrix:
 Charge =  0 Multiplicity = 1

 SCF Done:  E(RB3LYP) =  -309.420882990     A.U. after   11 cycles
 SCF Done:  E(RB3LYP) =  -309.442306917     A.U. after   11 cycles
 SCF Done:  E(RB3LYP) =  -309.457095615     A.U. after   11 cycles
 SCF Done:  E(RB3LYP) =  -309.460232121     A.U. after   11 cycles
 SCF Done:  E(RB3LYP) =  -309.460351659     A.U. after    8 cycles
 SCF Done:  E(RB3LYP) =  -309.460373371     A.U. after    8 cycles
 SCF Done:  E(RB3LYP) =  -309.460378644     A.U. after    7 cycles
 Optimization completed.
    -- Stationary point found.
 Normal termination of Gaussian 09 at Thu Feb  8 15:39:18 2018.

 --------------------------------------------------------------------
 #N Geom=AllCheck Guess=TCheck SCRF=Check GenChk RB3LYP/6-31G(d) Freq
 --------------------------------------------------------------------

 Structure from the checkpoint file:  "/tmp/Gau-6799.chk"
 -----
 Title
 -----
 Charge =  0 Multiplicity = 1

                         Standard orientation:
 ---------------------------------------------------------------------
 Center     Atomic      Atomic             Coordinates (Angstroms)
 Number     Number       Type             X           Y           Z
 ---------------------------------------------------------------------
      1          6           0       -0.000480    1.291450   -0.426337
      2          6           0       -0.000364    0.832316    1.075547
      3          6           0       -1.110517    0.229162   -0.750749
      4          6           0       -1.110318   -0.230052    0.750771
      5          6           0        0.000281   -0.832316   -1.075547
      6          1           0       -2.002240    0.412774   -1.353649
      7          6           0        1.110517   -0.228982    0.750804
      8          1           0       -0.000587    1.500667    1.939038
      9          6           0        0.000563   -1.291450    0.426337
     10          1           0       -2.001881   -0.414378    1.353689
     11          1           0        0.000946   -2.328376    0.768528
     12          6           0        1.110318    0.229871   -0.750827
     13          1           0        2.002240   -0.413206    1.353516
     14          1           0        0.000576   -1.500667   -1.939038
     15          1           0       -0.000935    2.328376   -0.768528
     16          1           0        2.001881    0.414810   -1.353556
 ---------------------------------------------------------------------

 SCF Done:  E(RB3LYP) =  -309.460378644     A.U. after    1 cycles

 The electronic state is 1-A.
 Alpha  occ. eigenvalues --  -10.17961 -10.17946 -10.17945 -10.17945 -10.17930
 Alpha  occ. eigenvalues --  -10.17930 -10.17929 -10.17916  -0.93575  -0.71779
 Alpha  occ. eigenvalues --   -0.71776  -0.71774  -0.55360  -0.55359  -0.55358
 Alpha  occ. eigenvalues --   -0.52597  -0.46031  -0.42415  -0.42415  -0.41951
 Alpha  occ. eigenvalues --   -0.41951  -0.41951  -0.26608  -0.26603  -0.26599
 Alpha  occ. eigenvalues --   -0.25683  -0.25683  -0.25682
 Alpha virt. eigenvalues --    0.07923   0.07926   0.07926   0.08991   0.16523
 Alpha virt. eigenvalues --    0.16524   0.16525   0.18070   0.18072   0.18073
 Alpha virt. eigenvalues --    0.18299   0.19924   0.19928   0.19934   0.31243

 Mulliken charges:
               1
     1  C   -0.112074
     2  C   -0.112077
     3  C   -0.112054
     4  C   -0.112054
     5  C   -0.112077
     6  H    0.112064
     7  C   -0.112054
     8  H    0.112065
     9  C   -0.112074
    10  H    0.112064
    11  H    0.112065
    12  C   -0.112054
    13  H    0.112064
    14  H    0.112065
    15  H    0.112065
    16  H    0.112064
 Sum of Mulliken charges =   0.00000

 Dipole moment (field-independent basis, Debye):
    X=              0.0000    Y=              0.0000    Z=              0.0000  Tot=              0.0000
 Quadrupole moment (field-independent basis, Debye-Ang):
   XX=            -46.2186   YY=            -46.2195   ZZ=            -46.2208
   XY=              0.0000   XZ=              0.0000   YZ=              0.0004

  Exact polarizability:  66.785   0.000  66.782   0.000   0.000  66.779
 Approx polarizability:  97.521   0.000  97.516   0.000   0.001  97.512

                      1                      2                      3
                      A                      A                      A
 Frequencies --    626.5757               626.5891               686.5097
 Red. masses --      2.6599                 2.6599                 3.8990
 Frc consts  --      0.6153                 0.6153                 1.0827
 IR Inten    --      0.0000                 0.0000                 0.0000

                      4                      5                      6
                      A                      A                      A
 Frequencies --    686.5738               686.6447               847.2309
 Red. masses --      3.9005                 3.8969                 1.9822
 Frc consts  --      1.0833                 1.0825                 0.8383
 IR Inten    --      0.0000                 0.0000                 0.0000

                      7                      8                      9
                      A                      A                      A
 Frequencies --    847.3277               847.3511               848.5247
 Red. masses --      1.9806                 1.9813                 1.4451
 Frc consts  --      0.8378                 0.8382                 0.6130
 IR Inten    --      0.0000                 0.0000                 0.0002

                     10                     11                     12
                      A                      A                      A
 Frequencies --    848.6593               848.8689               870.2011
 Red. masses --      1.4448                 1.4444                 1.9599
 Frc consts  --      0.6131                 0.6132                 0.8744
 IR Inten    --      0.0000                 0.0002                 6.0503

                     13                     14                     15
                      A                      A                      A
 Frequencies --    870.3069               870.4484               921.6225
 Red. masses --      1.9594                 1.9585                 1.5028
 Frc consts  --      0.8744                 0.8743                 0.7521
 IR Inten    --      6.0550                 6.0474                 0.0000

                     16                     17                     18
                      A                      A                      A
 Frequencies --    921.6550              1021.7707              1047.4415
 Red. masses --      1.5028                 6.0247                 6.3695
 Frc consts  --      0.7521                 3.7059                 4.1173
 IR Inten    --      0.0000                 0.0000                 0.0000

                     19                     20                     21
                      A                      A                      A
 Frequencies --   1082.5973              1082.7930              1082.9813
 Red. masses --      2.6073                 2.6080                 2.6093
 Frc consts  --      1.8004                 1.8015                 1.8031
 IR Inten    --      0.0000                 0.0000                 0.0000

                     22                     23                     24
                      A                      A                      A
 Frequencies --   1125.0565              1125.0577              1165.2165
 Red. masses --      2.4382                 2.4382                 1.2542
 Frc consts  --      1.8183                 1.8183                 1.0033
 IR Inten    --      0.0000                 0.0000                 0.0000

                     25                     26                     27
                      A                      A                      A
 Frequencies --   1165.3140              1165.5089              1196.4152
 Red. masses --      1.2542                 1.2542                 1.4293
 Frc consts  --      1.0035                 1.0038                 1.2055
 IR Inten    --      0.0000                 0.0000                 0.0000

                     28                     29                     30
                      A                      A                      A
 Frequencies --   1196.4366              1242.5802              1242.6172
 Red. masses --      1.4293                 2.1244                 2.1250
 Frc consts  --      1.2055                 1.9325                 1.9332
 IR Inten    --      0.0000                 0.0000                 0.0000

                     31                     32                     33
                      A                      A                      A
 Frequencies --   1242.7194              1285.0953              1285.2102
 Red. masses --      2.1252                 1.7488                 1.7492
 Frc consts  --      1.9337                 1.7016                 1.7023
 IR Inten    --      0.0000                 1.9756                 1.9772

                     34                     35                     36
                      A                      A                      A
 Frequencies --   1285.2818              3109.3992              3119.5836
 Red. masses --      1.7500                 1.0886                 1.0877
 Frc consts  --      1.7032                 6.2014                 6.2368
 IR Inten    --      1.9698                 0.0085                 0.0000

                     37                     38                     39
                      A                      A                      A
 Frequencies --   3119.6607              3119.8421              3126.6770
 Red. masses --      1.0877                 1.0877                 1.0925
 Frc consts  --      6.2371                 6.2379                 6.2926
 IR Inten    --      0.0000                 0.0000               140.7357

                     40                     41                     42
                      A                      A                      A
 Frequencies --   3126.7467              3126.9194              3144.6672
 Red. masses --      1.0925                 1.0925                 1.0994
 Frc consts  --      6.2928                 6.2935                 6.4055
 IR Inten    --    140.6795               140.6631                 0.0000

 - Thermochemistry -
 -------------------
 Temperature   298.150 Kelvin.  Pressure   1.00000 Atm.
 Atom     1 has atomic number  6 and mass  12.00000

 Molecular mass:   104.06260 amu.
 Principal axes and moments of inertia in atomic units:
                           1         2         3
     Eigenvalues --   538.07903 538.09309 538.10103
           X            1.00000   0.00009   0.00004
           Y           -0.00010   0.98154   0.19126
           Z           -0.00002  -0.19126   0.98154
 This molecule is an asymmetric top.
 Rotational symmetry number  1.
 Warning -- assumption of classical behavior for rotation
           may cause significant error
 Rotational temperatures (Kelvin)      0.16097     0.16096     0.16096
 Rotational constants (GHZ):           3.35404     3.35396     3.35391
 Zero-point vibrational energy     352232.5 (Joules/Mol)
                                   84.18559 (Kcal/Mol)
 Vibrational temperatures:    901.50   901.52   987.73   987.83   987.93
          (Kelvin)           1218.97  1219.11  1219.15  1220.84  1221.03
                             1221.33  1252.02  1252.18  1252.38  1326.01
                             1326.05  1470.10  1507.03  1557.61  1557.90
                             1558.17  1618.70  1618.71  1676.48  1676.62
                             1676.91  1721.37  1721.40  1787.79  1787.85
                             1787.99  1848.96  1849.13  1849.23  4473.73
                             4488.38  4488.49  4488.75  4498.59  4498.69
                             4498.93  4524.47

 Zero-point correction=                           0.134158 (Hartree/Particle)
 Thermal correction to Energy=                    0.138671
 Thermal correction to Enthalpy=                  0.139615
 Thermal correction to Gibbs Free Energy=         0.105969
 Sum of electronic and zero-point Energies=           -309.326220
 Sum of electronic and thermal Energies=              -309.321708
 Sum of electronic and thermal Enthalpies=            -309.320763
 Sum of electronic and thermal Free Energies=         -309.354409

                     E (Thermal)             CV                S
                      KCal/Mol        Cal/Mol-Kelvin    Cal/Mol-Kelvin
 Total                   87.017             20.685             70.814
 Electronic               0.000              0.000              0.000
 Translational            0.889              2.981             39.837
 Rotational               0.889              2.981             26.546
 Vibrational             85.240             14.724              4.431

 Optimization completed.
    -- Stationary point found.
 Normal termination of Gaussian 09 at Thu Feb  8 15:59:12 2018.
