 Gaussian 09, Revision D.01,
 Gaussian 09:  AS64L-G09RevD.01 24-Apr-2013

 -------------------------------------------------
 # opt freq b3lyp/6-31(d) Integral(Grid=UltraFine)
 -------------------------------------------------

 -----
 Title
 -----
 Symbolic Z-matrix:
 Charge =  0 Multiplicity = 1

 SCF Done:  E(RB3LYP) =  -155.031785359     A.U. after   12 cycles
 SCF Done:  E(RB3LYP) =  -155.033737772     A.U. after   11 cycles
 SCF Done:  E(RB3LYP) =  -155.033792662     A.U. after    8 cycles
 SCF Done:  E(RB3LYP) =  -155.033798931     A.U. after    8 cycles
 Optimization completed.
    -- Stationary point found.
 Normal termination of Gaussian 09 at Tue Feb  6 11:28:19 2018.

 --------------------------------------------------------------------
 #N Geom=AllCheck Guess=TCheck SCRF=Check GenChk RB3LYP/6-31G(d) Freq
 --------------------------------------------------------------------

 Structure from the checkpoint file:  "/tmp/Gau-26340.chk"
 -----
 Title
 -----
 Charge =  0 Multiplicity = 1

                         Standard orientation:
 ---------------------------------------------------------------------
 Center     Atomic      Atomic             Coordinates (Angstroms)
 Number     Number       Type             X           Y           Z
 ---------------------------------------------------------------------
      1          6           0        1.222867   -0.221776    0.000000
      2          6           0       -0.087400    0.548272    0.000000
      3          1           0        1.289321   -0.860416    0.886830
      4          1           0        2.075290    0.466755    0.000001
      5          1           0        1.289321   -0.860414   -0.886832
      6          1           0       -0.138994    1.200935    0.887247
      7          8           0       -1.150295   -0.399572    0.000000
      8          1           0       -0.138994    1.200936   -0.887246
      9          1           0       -1.986389    0.089798   -0.000003
 ---------------------------------------------------------------------

 SCF Done:  E(RB3LYP) =  -155.033798931     A.U. after    1 cycles

 The electronic state is 1-A.
 Alpha  occ. eigenvalues --  -19.13706 -10.22822 -10.17167  -1.00902  -0.74322
 Alpha  occ. eigenvalues --   -0.60565  -0.51053  -0.45899  -0.39457  -0.37889
 Alpha  occ. eigenvalues --   -0.36062  -0.32519  -0.26152
 Alpha virt. eigenvalues --    0.07665   0.11925   0.15748   0.16224   0.17564
 Alpha virt. eigenvalues --    0.19932   0.21427   0.24007   0.52870   0.55879
 Alpha virt. eigenvalues --    0.56231   0.58417   0.66999   0.68381   0.80859

 Mulliken charges:
               1
     1  C   -0.441633
     2  C   -0.025759
     3  H    0.157834
     4  H    0.139666
     5  H    0.157834
     6  H    0.117796
     7  O   -0.613042
     8  H    0.117796
     9  H    0.389507
 Sum of Mulliken charges =   0.00000

 Dipole moment (field-independent basis, Debye):
    X=             -0.2655    Y=              1.5379    Z=              0.0000  Tot=              1.5607
 Quadrupole moment (field-independent basis, Debye-Ang):
   XX=            -16.6502   YY=            -20.4058   ZZ=            -19.9414
   XY=             -1.9185   XZ=              0.0000   YZ=              0.0000

  Exact polarizability:  29.650  -0.359  25.728   0.000   0.000  23.784
 Approx polarizability:  35.221   0.752  33.950   0.000   0.000  31.000

                      1                      2                      3
                      A                      A                      A
 Frequencies --    248.2621               295.0750               416.9818
 Red. masses --      1.1531                 1.0682                 2.6395
 Frc consts  --      0.0419                 0.0548                 0.2704
 IR Inten    --     41.9480                89.5074                11.3221

                      4                      5                      6
                      A                      A                      A
 Frequencies --    829.4789               912.2402              1042.4784
 Red. masses --      1.0798                 2.1997                 2.1479
 Frc consts  --      0.4377                 1.0785                 1.3753
 IR Inten    --      0.0159                 9.7276                55.9113

                      7                      8                      9
                      A                      A                      A
 Frequencies --   1125.7702              1194.9892              1291.0798
 Red. masses --      2.2590                 1.4986                 1.2518
 Frc consts  --      1.6868                 1.2608                 1.2294
 IR Inten    --     23.8255                 4.8602                86.8052

                     10                     11                     12
                      A                      A                      A
 Frequencies --   1310.4594              1427.4934              1481.8292
 Red. masses --      1.1207                 1.2320                 1.4588
 Frc consts  --      1.1339                 1.4791                 1.8873
 IR Inten    --      0.0759                 0.4278                16.3470

                     13                     14                     15
                      A                      A                      A
 Frequencies --   1513.7414              1531.7354              1561.4903
 Red. masses --      1.0409                 1.0456                 1.0906
 Frc consts  --      1.4053                 1.4454                 1.5667
 IR Inten    --      4.4189                 3.0623                 2.7127

                     16                     17                     18
                      A                      A                      A
 Frequencies --   2982.1696              3005.2189              3057.9679
 Red. masses --      1.0552                 1.1083                 1.0351
 Frc consts  --      5.5288                 5.8975                 5.7028
 IR Inten    --     73.6282                78.1100                15.7203

                     19                     20                     21
                      A                      A                      A
 Frequencies --   3128.6176              3134.5082              3754.4675
 Red. masses --      1.1024                 1.1037                 1.0663
 Frc consts  --      6.3574                 6.3889                 8.8561
 IR Inten    --     31.5031                34.2092                 9.7914

 - Thermochemistry -
 -------------------
 Temperature   298.150 Kelvin.  Pressure   1.00000 Atm.
 Atom     1 has atomic number  6 and mass  12.00000

 Molecular mass:    46.04186 amu.
 Principal axes and moments of inertia in atomic units:
                           1         2         3
     Eigenvalues --    51.58675 192.94329 221.87535
           X            0.99909  -0.04256   0.00000
           Y            0.04256   0.99909   0.00000
           Z            0.00000   0.00000   1.00000
 This molecule is an asymmetric top.
 Rotational symmetry number  1.
 Rotational temperatures (Kelvin)      1.67899     0.44891     0.39037
 Rotational constants (GHZ):          34.98459     9.35374     8.13403
 Zero-point vibrational energy     210818.2 (Joules/Mol)
                                   50.38676 (Kcal/Mol)
 Warning -- explicit consideration of   3 degrees of freedom as
           vibrations may cause significant error
 Vibrational temperatures:    357.19   424.55   599.94  1193.43  1312.51
          (Kelvin)           1499.89  1619.73  1719.32  1857.57  1885.46
                             2053.84  2132.02  2177.93  2203.82  2246.63
                             4290.67  4323.83  4399.73  4501.38  4509.85
                             5401.83

 Zero-point correction=                           0.080296 (Hartree/Particle)
 Thermal correction to Energy=                    0.084577
 Thermal correction to Enthalpy=                  0.085521
 Thermal correction to Gibbs Free Energy=         0.054913
 Sum of electronic and zero-point Energies=           -154.953503
 Sum of electronic and thermal Energies=              -154.949222
 Sum of electronic and thermal Enthalpies=            -154.948278
 Sum of electronic and thermal Free Energies=         -154.978886

                     E (Thermal)             CV                S
                      KCal/Mol        Cal/Mol-Kelvin    Cal/Mol-Kelvin
 Total                   53.073             13.401             64.422
 Electronic               0.000              0.000              0.000
 Translational            0.889              2.981             37.406
 Rotational               0.889              2.981             22.317
 Vibrational             51.296              7.440              4.698
 Vibration     1          0.662              1.766              1.743
 Vibration     2          0.689              1.683              1.445
 Vibration     3          0.780              1.433              0.902

 Optimization completed.
    -- Stationary point found.
 Normal termination of Gaussian 09 at Tue Feb  6 11:30:25 2018.
