 Gaussian 09, Revision D.01,
 Gaussian 09:  AS64L-G09RevD.01 24-Apr-2013

 -------------------------------------------------
 # opt freq b3lyp/6-31(d) Integral(Grid=UltraFine)
 -------------------------------------------------

 -----
 Title
 -----
 Symbolic Z-matrix:
 Charge =  0 Multiplicity = 1

 SCF Done:  E(RB3LYP) =  -76.3512951901     A.U. after   10 cycles
 SCF Done:  E(RB3LYP) =  -76.3902866916     A.U. after   10 cycles
 SCF Done:  E(RB3LYP) =  -76.4077553181     A.U. after   10 cycles
 SCF Done:  E(RB3LYP) =  -76.4089390395     A.U. after    9 cycles
 SCF Done:  E(RB3LYP) =  -76.4089539416     A.U. after    7 cycles
 Optimization completed.
    -- Stationary point found.
 Normal termination of Gaussian 09 at Tue Feb  6 11:27:13 2018.

 --------------------------------------------------------------------
 #N Geom=AllCheck Guess=TCheck SCRF=Check GenChk RB3LYP/6-31G(d) Freq
 --------------------------------------------------------------------

 Structure from the checkpoint file:  "/tmp/Gau-10893.chk"
 -----
 Title
 -----
 Charge =  0 Multiplicity = 1

                         Standard orientation:
 ---------------------------------------------------------------------
 Center     Atomic      Atomic             Coordinates (Angstroms)
 Number     Number       Type             X           Y           Z
 ---------------------------------------------------------------------
      1          8           0        0.000000    0.119773    0.000000
      2          1           0        0.761513   -0.479291    0.000000
      3          1           0       -0.761513   -0.478891    0.000000
 ---------------------------------------------------------------------

 SCF Done:  E(RB3LYP) =  -76.4089539416     A.U. after    1 cycles

 The electronic state is 1-A'.
 Alpha  occ. eigenvalues --  -19.13819  -0.99787  -0.51709  -0.37225  -0.29119
 Alpha virt. eigenvalues --    0.06258   0.14809   0.77237   0.86091   0.89078
 Alpha virt. eigenvalues --    0.89510   1.06576   1.19349   1.72907   1.74640
 Alpha virt. eigenvalues --    1.77980   2.28050   2.57698   3.55185

 Mulliken charges:
               1
     1  O   -0.774279
     2  H    0.387118
     3  H    0.387161
 Sum of Mulliken charges =   0.00000

 Dipole moment (field-independent basis, Debye):
    X=             -0.0002    Y=             -2.0956    Z=              0.0000  Tot=              2.0956
 Quadrupole moment (field-independent basis, Debye-Ang):
   XX=             -4.2872   YY=             -5.9894   ZZ=             -7.2040
   XY=             -0.0006   XZ=              0.0000   YZ=              0.0000

  Exact polarizability:   7.395  -0.002   5.425   0.000   0.000   2.830
 Approx polarizability:   8.972  -0.003   6.757   0.000   0.000   3.082

                      1                      2                      3
                     A'                     A'                     A'
 Frequencies --   1713.3575              3726.5245              3848.3968
 Red. masses --      1.0825                 1.0453                 1.0810
 Frc consts  --      1.8723                 8.5530                 9.4326
 IR Inten    --     75.7490                 1.6902                19.3423

 - Thermochemistry -
 -------------------
 Temperature   298.150 Kelvin.  Pressure   1.00000 Atm.
 Atom     1 has atomic number  8 and mass  15.99491

 Molecular mass:    18.01056 amu.
 Principal axes and moments of inertia in atomic units:
                           1         2         3
     Eigenvalues --     2.29257   4.17415   6.46672
           X            1.00000   0.00058   0.00000
           Y           -0.00058   1.00000   0.00000
           Z            0.00000   0.00000   1.00000
 This molecule is an asymmetric top.
 Rotational symmetry number  1.
 Rotational temperatures (Kelvin)     37.78015    20.75007    13.39378
 Rotational constants (GHZ):         787.21148   432.36181   279.08137
 Zero-point vibrational energy      55556.2 (Joules/Mol)
                                   13.27826 (Kcal/Mol)
 Vibrational temperatures:   2465.14  5361.63  5536.98
          (Kelvin)

 Zero-point correction=                           0.021160 (Hartree/Particle)
 Thermal correction to Energy=                    0.023995
 Thermal correction to Enthalpy=                  0.024939
 Thermal correction to Gibbs Free Energy=         0.002838
 Sum of electronic and zero-point Energies=            -76.387794
 Sum of electronic and thermal Energies=               -76.384959
 Sum of electronic and thermal Enthalpies=             -76.384015
 Sum of electronic and thermal Free Energies=          -76.406116

                     E (Thermal)             CV                S
                      KCal/Mol        Cal/Mol-Kelvin    Cal/Mol-Kelvin
 Total                   15.057              5.997             46.515
 Electronic               0.000              0.000              0.000
 Translational            0.889              2.981             34.608
 Rotational               0.889              2.981             11.902
 Vibrational             13.280              0.035              0.005

 Optimization completed.
    -- Stationary point found.
 Normal termination of Gaussian 09 at Tue Feb  6 11:27:20 2018.
