 Gaussian 09, Revision D.01,
 Gaussian 09:  AS64L-G09RevD.01 24-Apr-2013

 -------------------------------------------------
 # opt freq b3lyp/6-31(d) Integral(Grid=UltraFine)
 -------------------------------------------------

 -----
 Title
 -----
 Symbolic Z-matrix:
 Charge =  0 Multiplicity = 1

 SCF Done:  E(RB3LYP) =  -109.506129712     A.U. after    8 cycles
 SCF Done:  E(RB3LYP) =  -109.524071475     A.U. after    9 cycles
 SCF Done:  E(RB3LYP) =  -109.524128672     A.U. after    6 cycles
 Optimization completed.
    -- Stationary point found.
 Normal termination of Gaussian 09 at Tue Feb  6 11:27:01 2018.

 --------------------------------------------------------------------
 #N Geom=AllCheck Guess=TCheck SCRF=Check GenChk RB3LYP/6-31G(d) Freq
 --------------------------------------------------------------------

 Structure from the checkpoint file:  "/tmp/Gau-10894.chk"
 -----
 Title
 -----
 Charge =  0 Multiplicity = 1

                         Standard orientation:
 ---------------------------------------------------------------------
 Center     Atomic      Atomic             Coordinates (Angstroms)
 Number     Number       Type             X           Y           Z
 ---------------------------------------------------------------------
      1          7           0        0.000000    0.000000    0.552767
      2          7           0        0.000000    0.000000   -0.552767
 ---------------------------------------------------------------------

 SCF Done:  E(RB3LYP) =  -109.524128672     A.U. after    1 cycles

 The electronic state is 1-SGG.
 Alpha  occ. eigenvalues --  -14.44677 -14.44513  -1.12381  -0.55343  -0.46239
 Alpha  occ. eigenvalues --   -0.46239  -0.42687
 Alpha virt. eigenvalues --   -0.02414  -0.02414   0.41364   0.59106   0.60591
 Alpha virt. eigenvalues --    0.60591   0.64005   0.75115   0.75115   0.78516
 Alpha virt. eigenvalues --    1.23887   1.44992   1.44992   1.54797   1.54797

 Mulliken charges:
               1
     1  N    0.000000
     2  N    0.000000
 Sum of Mulliken charges =   0.00000

 Dipole moment (field-independent basis, Debye):
    X=              0.0000    Y=              0.0000    Z=              0.0000  Tot=              0.0000
 Quadrupole moment (field-independent basis, Debye-Ang):
   XX=            -10.0490   YY=            -10.0490   ZZ=            -11.6071
   XY=              0.0000   XZ=              0.0000   YZ=              0.0000

  Exact polarizability:   6.138   0.000   6.138   0.000   0.000  13.334
 Approx polarizability:   8.399   0.000   8.399   0.000   0.000  27.343

                      1
                     SGG
 Frequencies --   2457.0098
 Red. masses --     14.0031
 Frc consts  --     49.8067
 IR Inten    --      0.0000

 - Thermochemistry -
 -------------------
 Temperature   298.150 Kelvin.  Pressure   1.00000 Atm.
 Atom     1 has atomic number  7 and mass  14.00307

 Molecular mass:    28.00615 amu.
 Principal axes and moments of inertia in atomic units:
                           1         2         3
     Eigenvalues --     0.00000  30.55873  30.55873
           X            0.00000   0.92164   0.38806
           Y            0.00000  -0.38806   0.92164
           Z            1.00000   0.00000   0.00000
 This molecule is a prolate symmetric top.
 Rotational symmetry number  2.
 Rotational temperature (Kelvin)      2.83434
 Rotational constant (GHZ):          59.058120
 Zero-point vibrational energy      14696.2 (Joules/Mol)
                                    3.51247 (Kcal/Mol)
 Vibrational temperatures:   3535.08
          (Kelvin)

 Zero-point correction=                           0.005597 (Hartree/Particle)
 Thermal correction to Energy=                    0.007958
 Thermal correction to Enthalpy=                  0.008902
 Thermal correction to Gibbs Free Energy=        -0.012852
 Sum of electronic and zero-point Energies=           -109.518531
 Sum of electronic and thermal Energies=              -109.516171
 Sum of electronic and thermal Enthalpies=            -109.515226
 Sum of electronic and thermal Free Energies=         -109.536981

                     E (Thermal)             CV                S
                      KCal/Mol        Cal/Mol-Kelvin    Cal/Mol-Kelvin
 Total                    4.994              4.970             45.786
 Electronic               0.000              0.000              0.000
 Translational            0.889              2.981             35.924
 Rotational               0.592              1.987              9.862
 Vibrational              3.513              0.002              0.000

 Optimization completed.
    -- Stationary point found.
 Normal termination of Gaussian 09 at Tue Feb  6 11:27:09 2018.
