 Gaussian 09, Revision D.01,
 Gaussian 09:  AS64L-G09RevD.01 24-Apr-2013

 -------------------------------------------------
 # opt freq b3lyp/6-31(d) Integral(Grid=UltraFine)
 -------------------------------------------------

 -----
 Title
 -----
 Symbolic Z-matrix:
 Charge =  0 Multiplicity = 1

 SCF Done:  E(RB3LYP) =  -150.256645828     A.U. after    9 cycles
 SCF Done:  E(RB3LYP) =  -150.257399710     A.U. after    6 cycles
 SCF Done:  E(RB3LYP) =  -150.257424351     A.U. after    6 cycles
 Optimization completed.
    -- Stationary point found.
 Normal termination of Gaussian 09 at Tue Feb  6 11:26:58 2018.

 --------------------------------------------------------------------
 #N Geom=AllCheck Guess=TCheck SCRF=Check GenChk RB3LYP/6-31G(d) Freq
 --------------------------------------------------------------------

 Structure from the checkpoint file:  "/tmp/Gau-24309.chk"
 -----
 Title
 -----
 Charge =  0 Multiplicity = 1

                         Standard orientation:
 ---------------------------------------------------------------------
 Center     Atomic      Atomic             Coordinates (Angstroms)
 Number     Number       Type             X           Y           Z
 ---------------------------------------------------------------------
      1          8           0        0.000000    0.000000    0.607972
      2          8           0        0.000000    0.000000   -0.607972
 ---------------------------------------------------------------------

 SCF Done:  E(RB3LYP) =  -150.257424351     A.U. after    1 cycles

 Unable to determine electronic state:  partially filled degenerate orbitals.
 Alpha  occ. eigenvalues --  -19.30735 -19.30711  -1.27670  -0.79819  -0.53152
 Alpha  occ. eigenvalues --   -0.51528  -0.50756  -0.25015
 Alpha virt. eigenvalues --   -0.17926   0.21210   0.67695   0.71503   0.79234
 Alpha virt. eigenvalues --    0.80967   0.86023   0.91525   0.92700   1.28459
 Alpha virt. eigenvalues --    1.48361   1.51447   1.53776   1.53951   1.92371

 Mulliken charges:
               1
     1  O    0.000000
     2  O    0.000000
 Sum of Mulliken charges =   0.00000

 Dipole moment (field-independent basis, Debye):
    X=              0.0000    Y=              0.0000    Z=              0.0000  Tot=              0.0000
 Quadrupole moment (field-independent basis, Debye-Ang):
   XX=            -10.7090   YY=             -8.9748   ZZ=            -10.2986
   XY=              0.0000   XZ=              0.0000   YZ=              0.0000

  Exact polarizability:   3.765   0.000   4.451   0.000   0.000  11.364
 Approx polarizability:   4.408   0.000   6.353   0.000   0.000  24.732

                      1
                     SGG
 Frequencies --   1643.2081
 Red. masses --     15.9949
 Frc consts  --     25.4459
 IR Inten    --      0.0000

 - Thermochemistry -
 -------------------
 Temperature   298.150 Kelvin.  Pressure   1.00000 Atm.
 Atom     1 has atomic number  8 and mass  15.99491

 Molecular mass:    31.98983 amu.
 Principal axes and moments of inertia in atomic units:
                           1         2         3
     Eigenvalues --     0.00000  42.22564  42.22564
           X            0.00000  -0.24818   0.96871
           Y            0.00000   0.96871   0.24818
           Z            1.00000   0.00000   0.00000
 This molecule is a prolate symmetric top.
 Rotational symmetry number  2.
 Rotational temperature (Kelvin)      2.05121
 Rotational constant (GHZ):          42.740408
 Zero-point vibrational energy       9828.6 (Joules/Mol)
                                    2.34908 (Kcal/Mol)
 Vibrational temperatures:   2364.21
          (Kelvin)

 Zero-point correction=                           0.003744 (Hartree/Particle)
 Thermal correction to Energy=                    0.006107
 Thermal correction to Enthalpy=                  0.007051
 Thermal correction to Gibbs Free Energy=        -0.015200
 Sum of electronic and zero-point Energies=           -150.253681
 Sum of electronic and thermal Energies=              -150.251318
 Sum of electronic and thermal Enthalpies=            -150.250374
 Sum of electronic and thermal Free Energies=         -150.272625

                     E (Thermal)             CV                S
                      KCal/Mol        Cal/Mol-Kelvin    Cal/Mol-Kelvin
 Total                    3.832              5.013             46.831
 Electronic               0.000              0.000              0.000
 Translational            0.889              2.981             36.321
 Rotational               0.592              1.987             10.504
 Vibrational              2.351              0.045              0.006

 Optimization completed.
    -- Stationary point found.
 Normal termination of Gaussian 09 at Tue Feb  6 11:27:04 2018.
