 Gaussian 09, Revision D.01,
 Gaussian 09:  AS64L-G09RevD.01 24-Apr-2013

 -------------------------------------------------
 # opt freq b3lyp/6-31(d) Integral(Grid=UltraFine)
 -------------------------------------------------

 -----
 Title
 -----
 Symbolic Z-matrix:
 Charge =  0 Multiplicity = 1

 SCF Done:  E(RB3LYP) =  -315.707476140     A.U. after   11 cycles
 SCF Done:  E(RB3LYP) =  -315.712592061     A.U. after    9 cycles
 SCF Done:  E(RB3LYP) =  -315.712900675     A.U. after    9 cycles
 SCF Done:  E(RB3LYP) =  -315.712913438     A.U. after    6 cycles
 Optimization completed.
    -- Stationary point found.
 Normal termination of Gaussian 09 at Tue Feb  6 11:45:41 2018.

 --------------------------------------------------------------------
 #N Geom=AllCheck Guess=TCheck SCRF=Check GenChk RB3LYP/6-31G(d) Freq
 --------------------------------------------------------------------

 Structure from the checkpoint file:  "/tmp/Gau-26740.chk"
 -----
 Title
 -----
 Charge =  0 Multiplicity = 1

                         Standard orientation:
 ---------------------------------------------------------------------
 Center     Atomic      Atomic             Coordinates (Angstroms)
 Number     Number       Type             X           Y           Z
 ---------------------------------------------------------------------
      1          6           0       -0.625407    0.444352    0.000000
      2          6           0        0.625407   -0.444352    0.000000
      3          6           0        1.940062    0.346664    0.000000
      4          1           0        0.600260   -1.106206   -0.878496
      5          1           0        0.600260   -1.106206    0.878496
      6          6           0        3.191079   -0.541582    0.000001
      7          1           0        1.966262    1.008652    0.878505
      8          1           0        1.966262    1.008651   -0.878506
      9          6           0        4.499217    0.256320    0.000000
     10          1           0        3.165597   -1.202531   -0.878069
     11          1           0        3.165597   -1.202529    0.878071
     12          1           0        4.569845    0.901236   -0.884673
     13          1           0        5.372799   -0.405756    0.000000
     14          1           0        4.569845    0.901238    0.884671
     15          6           0       -1.940062   -0.346664    0.000000
     16          1           0       -0.600260    1.106206   -0.878495
     17          1           0       -0.600260    1.106206    0.878496
     18          6           0       -3.191079    0.541582    0.000001
     19          1           0       -1.966262   -1.008652    0.878505
     20          1           0       -1.966262   -1.008651   -0.878506
     21          6           0       -4.499217   -0.256320    0.000000
     22          1           0       -3.165597    1.202531   -0.878069
     23          1           0       -3.165597    1.202529    0.878071
     24          1           0       -4.569845   -0.901236   -0.884673
     25          1           0       -5.372799    0.405756    0.000000
     26          1           0       -4.569845   -0.901238    0.884671
 ---------------------------------------------------------------------

 SCF Done:  E(RB3LYP) =  -315.712913438     A.U. after    1 cycles

 The electronic state is 1-A.
 Alpha  occ. eigenvalues --  -10.17575 -10.17575 -10.17371 -10.17356 -10.17341
 Alpha  occ. eigenvalues --  -10.17335 -10.16979 -10.16979  -0.80372  -0.78047
 Alpha  occ. eigenvalues --   -0.74297  -0.69387  -0.63830  -0.58840  -0.57115
 Alpha  occ. eigenvalues --   -0.56734  -0.47759  -0.45671  -0.43050  -0.42511
 Alpha  occ. eigenvalues --   -0.41218  -0.40667  -0.38809  -0.37908  -0.35338
 Alpha  occ. eigenvalues --   -0.34893  -0.34723  -0.32880  -0.32623  -0.31801
 Alpha  occ. eigenvalues --   -0.31770  -0.31633  -0.29552
 Alpha virt. eigenvalues --    0.09136   0.09953   0.11502   0.11734   0.12678
 Alpha virt. eigenvalues --    0.14487   0.14562   0.15310   0.17030   0.17939
 Alpha virt. eigenvalues --    0.18134   0.19510   0.19570   0.19736   0.19998

 Mulliken charges:
               1
     1  C   -0.252413
     2  C   -0.252413
     3  C   -0.245367
     4  H    0.126210
     5  H    0.126210
     6  C   -0.246452
     7  H    0.125808
     8  H    0.125808
     9  C   -0.441176
    10  H    0.129502
    11  H    0.129502
    12  H    0.140768
    13  H    0.140831
    14  H    0.140768
    15  C   -0.245367
    16  H    0.126210
    17  H    0.126210
    18  C   -0.246452
    19  H    0.125808
    20  H    0.125808
    21  C   -0.441176
    22  H    0.129502
    23  H    0.129502
    24  H    0.140768
    25  H    0.140831
    26  H    0.140768
 Sum of Mulliken charges =   0.00000

 Dipole moment (field-independent basis, Debye):
    X=              0.0000    Y=              0.0000    Z=              0.0000  Tot=              0.0000
 Quadrupole moment (field-independent basis, Debye-Ang):
   XX=            -56.0345   YY=            -55.1760   ZZ=            -53.7923
   XY=             -0.4363   XZ=              0.0000   YZ=              0.0000

  Exact polarizability: 108.549   0.047  78.161   0.000   0.000  76.180
 Approx polarizability: 112.503  -0.562 111.993   0.000   0.000 114.541

                      1                      2                      3
                      A                      A                      A
 Frequencies --     47.3781                69.4521                78.0499
 Red. masses --      2.9379                 1.5114                 3.1676
 Frc consts  --      0.0039                 0.0043                 0.0114
 IR Inten    --      0.0055                 0.0012                 0.0037

                      4                      5                      6
                      A                      A                      A
 Frequencies --    111.0918               137.8051               161.6084
 Red. masses --      2.3505                 1.6805                 2.0438
 Frc consts  --      0.0171                 0.0188                 0.0315
 IR Inten    --      0.0000                 0.0000                 0.0009

                      7                      8                      9
                      A                      A                      A
 Frequencies --    194.7654               248.5607               251.5754
 Red. masses --      2.8575                 1.1057                 1.1305
 Frc consts  --      0.0639                 0.0402                 0.0422
 IR Inten    --      0.0000                 0.0024                 0.0000

                     10                     11                     12
                      A                      A                      A
 Frequencies --    274.0479               337.7646               469.5036
 Red. masses --      3.8908                 2.6397                 3.2203
 Frc consts  --      0.1722                 0.1774                 0.4182
 IR Inten    --      0.0000                 0.0473                 0.1300

                     13                     14                     15
                      A                      A                      A
 Frequencies --    470.9232               737.5624               740.7639
 Red. masses --      2.6433                 1.0584                 1.0752
 Frc consts  --      0.3454                 0.3392                 0.3476
 IR Inten    --      0.0000                 5.3733                 0.0000

                     16                     17                     18
                      A                      A                      A
 Frequencies --    761.2711               812.2619               887.7494
 Red. masses --      1.1132                 1.1630                 1.1904
 Frc consts  --      0.3801                 0.4521                 0.5528
 IR Inten    --      1.3143                 0.0000                 0.8466

                     19                     20                     21
                      A                      A                      A
 Frequencies --    897.1385               912.5629               971.3901
 Red. masses --      1.9538                 1.9813                 1.1726
 Frc consts  --      0.9265                 0.9722                 0.6519
 IR Inten    --      2.8219                 0.0000                 0.0000

                     22                     23                     24
                      A                      A                      A
 Frequencies --   1012.3008              1019.7512              1046.5509
 Red. masses --      2.9990                 3.8481                 1.0937
 Frc consts  --      1.8107                 2.3577                 0.7058
 IR Inten    --      0.0000                 0.2747                 0.2293

                     25                     26                     27
                      A                      A                      A
 Frequencies --   1059.7687              1072.0571              1073.5301
 Red. masses --      2.8188                 2.3982                 2.1296
 Frc consts  --      1.8653                 1.6240                 1.4461
 IR Inten    --      0.0000                 0.2263                 0.0000

                     28                     29                     30
                      A                      A                      A
 Frequencies --   1109.7411              1164.1082              1220.7550
 Red. masses --      1.7788                 2.7029                 1.9106
 Frc consts  --      1.2907                 2.1581                 1.6775
 IR Inten    --      4.6755                 0.0000                 0.0000

                     31                     32                     33
                      A                      A                      A
 Frequencies --   1250.0260              1262.8915              1294.8870
 Red. masses --      1.5238                 1.3028                 1.3170
 Frc consts  --      1.4029                 1.2242                 1.3010
 IR Inten    --      0.0149                 6.1964                 0.0000

                     34                     35                     36
                      A                      A                      A
 Frequencies --   1317.0804              1331.9235              1340.2536
 Red. masses --      1.3148                 1.1967                 1.0253
 Frc consts  --      1.3438                 1.2508                 1.0851
 IR Inten    --      0.0000                 0.3552                 0.0000

                     37                     38                     39
                      A                      A                      A
 Frequencies --   1351.5850              1352.1957              1367.0179
 Red. masses --      1.0703                 1.1227                 1.3708
 Frc consts  --      1.1520                 1.2094                 1.5093
 IR Inten    --      0.4897                 0.0000                 3.2680

                     40                     41                     42
                      A                      A                      A
 Frequencies --   1405.5338              1424.5876              1425.2500
 Red. masses --      1.4612                 1.5899                 1.6581
 Frc consts  --      1.7007                 1.9010                 1.9845
 IR Inten    --      0.0000                 1.8321                 0.0000

                     43                     44                     45
                      A                      A                      A
 Frequencies --   1440.5869              1441.4210              1513.0547
 Red. masses --      1.2414                 1.2579                 1.0748
 Frc consts  --      1.5178                 1.5399                 1.4497
 IR Inten    --      2.0967                 0.0000                 0.2133

                     46                     47                     48
                      A                      A                      A
 Frequencies --   1513.6873              1516.7274              1520.2678
 Red. masses --      1.0748                 1.0686                 1.0675
 Frc consts  --      1.4510                 1.4484                 1.4536
 IR Inten    --      0.0000                 0.0000                 0.8213

                     49                     50                     51
                      A                      A                      A
 Frequencies --   1527.4717              1529.8389              1529.8514
 Red. masses --      1.0706                 1.0411                 1.0411
 Frc consts  --      1.4717                 1.4356                 1.4356
 IR Inten    --      0.0000                 0.0000                11.4723

                     52                     53                     54
                      A                      A                      A
 Frequencies --   1534.9729              1541.0971              1544.8955
 Red. masses --      1.0771                 1.0850                 1.0943
 Frc consts  --      1.4952                 1.5183                 1.5388
 IR Inten    --      1.4282                 0.0000                 5.0996

                     55                     56                     57
                      A                      A                      A
 Frequencies --   3009.5614              3011.0393              3013.1959
 Red. masses --      1.0581                 1.0583                 1.0588
 Frc consts  --      5.6463                 5.6531                 5.6638
 IR Inten    --      1.4336                 0.0000                 0.0000

                     58                     59                     60
                      A                      A                      A
 Frequencies --   3019.3289              3026.4964              3029.2221
 Red. masses --      1.0595                 1.0602                 1.0599
 Frc consts  --      5.6908                 5.7217                 5.7301
 IR Inten    --      8.6525                 0.0000               169.3614

                     61                     62                     63
                      A                      A                      A
 Frequencies --   3030.4970              3033.4923              3040.4797
 Red. masses --      1.0995                 1.1009                 1.0358
 Frc consts  --      5.9493                 5.9688                 5.6419
 IR Inten    --      0.0000                 0.1295                86.6883

                     64                     65                     66
                      A                      A                      A
 Frequencies --   3040.6073              3042.0815              3053.8986
 Red. masses --      1.0358                 1.1031                 1.1049
 Frc consts  --      5.6420                 6.0147                 6.0714
 IR Inten    --      0.0000                 0.0000                 1.1758

                     67                     68                     69
                      A                      A                      A
 Frequencies --   3065.1126              3074.7476              3105.3345
 Red. masses --      1.1057                 1.1055                 1.1029
 Frc consts  --      6.1205                 6.1581                 6.2660
 IR Inten    --      0.0000               148.7757                 0.0000

                     70                     71                     72
                      A                      A                      A
 Frequencies --   3105.5546              3109.5269              3109.5470
 Red. masses --      1.1028                 1.1019                 1.1019
 Frc consts  --      6.2667                 6.2776                 6.2775
 IR Inten    --    140.4663                90.3742                 0.0001

 - Thermochemistry -
 -------------------
 Temperature   298.150 Kelvin.  Pressure   1.00000 Atm.
 Atom     1 has atomic number  6 and mass  12.00000

 Molecular mass:   114.14085 amu.
 Principal axes and moments of inertia in atomic units:
                           1         2         3
     Eigenvalues --   168.520223721.911253801.25731
           X            1.00000   0.00216   0.00000
           Y           -0.00216   1.00000   0.00000
           Z            0.00000   0.00000   1.00000
 This molecule is an asymmetric top.
 Rotational symmetry number  1.
 Rotational temperatures (Kelvin)      0.51397     0.02327     0.02279
 Rotational constants (GHZ):          10.70934     0.48490     0.47477
 Zero-point vibrational energy     649264.9 (Joules/Mol)
                                  155.17804 (Kcal/Mol)
 Warning -- explicit consideration of  13 degrees of freedom as
           vibrations may cause significant error
 Vibrational temperatures:     68.17    99.93   112.30   159.84   198.27
          (Kelvin)            232.52   280.22   357.62   361.96   394.29
                              485.97   675.51   677.55  1061.19  1065.79
                             1095.30  1168.66  1277.27  1290.78  1312.97
                             1397.61  1456.47  1467.19  1505.75  1524.77
                             1542.45  1544.57  1596.67  1674.89  1756.39
                             1798.51  1817.02  1863.05  1894.98  1916.34
                             1928.32  1944.63  1945.51  1966.83  2022.25
                             2049.66  2050.61  2072.68  2073.88  2176.95
                             2177.86  2182.23  2187.32  2197.69  2201.09
                             2201.11  2208.48  2217.29  2222.76  4330.08
                             4332.21  4335.31  4344.14  4354.45  4358.37
                             4360.20  4364.51  4374.57  4374.75  4376.87
                             4393.87  4410.01  4423.87  4467.88  4468.19
                             4473.91  4473.94

 Zero-point correction=                           0.247292 (Hartree/Particle)
 Thermal correction to Energy=                    0.258384
 Thermal correction to Enthalpy=                  0.259328
 Thermal correction to Gibbs Free Energy=         0.210179
 Sum of electronic and zero-point Energies=           -315.465621
 Sum of electronic and thermal Energies=              -315.454530
 Sum of electronic and thermal Enthalpies=            -315.453586
 Sum of electronic and thermal Free Energies=         -315.502735

                     E (Thermal)             CV                S
                      KCal/Mol        Cal/Mol-Kelvin    Cal/Mol-Kelvin
 Total                  162.138             38.813            103.443
 Electronic               0.000              0.000              0.000
 Translational            0.889              2.981             40.112
 Rotational               0.889              2.981             29.257
 Vibrational            160.361             32.851             34.074
 Vibration     1          0.595              1.979              4.924
 Vibration     2          0.598              1.969              4.169
 Vibration     3          0.599              1.964              3.939
 Vibration     4          0.607              1.940              3.250
 Vibration     5          0.614              1.916              2.834
 Vibration     6          0.622              1.889              2.531
 Vibration     7          0.635              1.847              2.182
 Vibration     8          0.662              1.765              1.741
 Vibration     9          0.664              1.760              1.720
 Vibration    10          0.676              1.721              1.571
 Vibration    11          0.718              1.600              1.223
 Vibration    12          0.827              1.318              0.739
 Vibration    13          0.828              1.315              0.735

 Optimization completed.
    -- Stationary point found.
 Normal termination of Gaussian 09 at Tue Feb  6 12:16:46 2018.
