 Gaussian 09, Revision D.01,
 Gaussian 09:  AS64L-G09RevD.01 24-Apr-2013

 -------------------------------------------------
 # opt freq b3lyp/6-31(d) Integral(Grid=UltraFine)
 -------------------------------------------------

 -----
 Title
 -----
 Symbolic Z-matrix:
 Charge =  0 Multiplicity = 1

 SCF Done:  E(RB3LYP) =  -1365.44154122     A.U. after   11 cycles
 SCF Done:  E(RB3LYP) =  -1365.44178211     A.U. after    8 cycles
 SCF Done:  E(RB3LYP) =  -1365.44182978     A.U. after    8 cycles
 Optimization completed.
    -- Stationary point found.
 Normal termination of Gaussian 09 at Thu Feb  8 15:27:49 2018.

 --------------------------------------------------------------------
 #N Geom=AllCheck Guess=TCheck SCRF=Check GenChk RB3LYP/6-31G(d) Freq
 --------------------------------------------------------------------

 Structure from the checkpoint file:  "/tmp/Gau-1343.chk"
 -----
 Title
 -----
 Charge =  0 Multiplicity = 1

                         Standard orientation:
 ---------------------------------------------------------------------
 Center     Atomic      Atomic             Coordinates (Angstroms)
 Number     Number       Type             X           Y           Z
 ---------------------------------------------------------------------
      1         15           0       -1.066292    0.021975   -0.840558
      2         15           0        0.045474    1.160363    0.703907
      3         15           0       -0.121489   -1.045468    0.858039
      4         15           0        1.142306   -0.136870   -0.721389
 ---------------------------------------------------------------------

 SCF Done:  E(RB3LYP) =  -1365.44182978     A.U. after    1 cycles

 The electronic state is 1-A.
 Alpha  occ. eigenvalues --  -77.10797 -77.10797 -77.10797 -77.10795  -6.58089
 Alpha  occ. eigenvalues --   -6.58079  -6.58079  -6.58079  -4.74229  -4.74187
 Alpha  occ. eigenvalues --   -4.74187  -4.74187  -4.74057  -4.74057  -4.74053
 Alpha  occ. eigenvalues --   -4.74053  -4.74053  -4.74044  -4.74044  -4.74044
 Alpha  occ. eigenvalues --   -0.81548  -0.54742  -0.54742  -0.54742  -0.35090
 Alpha  occ. eigenvalues --   -0.30067  -0.30067  -0.30067  -0.27210  -0.27210
 Alpha virt. eigenvalues --   -0.03761  -0.03761  -0.03761  -0.02557  -0.02557
 Alpha virt. eigenvalues --   -0.02557   0.19709   0.23541   0.26365   0.26365
 Alpha virt. eigenvalues --    0.26365   0.26499   0.26499   0.30728   0.30728

 Mulliken charges:
               1
     1  P   -0.000001
     2  P    0.000000
     3  P    0.000001
     4  P   -0.000001
 Sum of Mulliken charges =   0.00000

 Dipole moment (field-independent basis, Debye):
    X=              0.0000    Y=              0.0000    Z=              0.0000  Tot=              0.0000
 Quadrupole moment (field-independent basis, Debye-Ang):
   XX=            -51.6615   YY=            -51.6615   ZZ=            -51.6615
   XY=              0.0000   XZ=              0.0000   YZ=              0.0000

  Exact polarizability:  81.096   0.000  81.095   0.000   0.000  81.096
 Approx polarizability: 183.027   0.000 183.026   0.000   0.000 183.026

                      1                      2                      3
                      A                      A                      A
 Frequencies --    367.4225               367.4435               463.9143
 Red. masses --     30.9738                30.9738                30.9738
 Frc consts  --      2.4636                 2.4639                 3.9275
 IR Inten    --      0.0000                 0.0000                 1.7238

                      4                      5                      6
                      A                      A                      A
 Frequencies --    463.9388               463.9710               607.0182
 Red. masses --     30.9738                30.9738                30.9738
 Frc consts  --      3.9279                 3.9285                 6.7243
 IR Inten    --      1.7256                 1.7239                 0.0000

 - Thermochemistry -
 -------------------
 Temperature   298.150 Kelvin.  Pressure   1.00000 Atm.
 Atom     1 has atomic number 15 and mass  30.97376

 Molecular mass:   123.89505 amu.
 Principal axes and moments of inertia in atomic units:
                           1         2         3
     Eigenvalues --   543.90111 543.90182 543.90269
           X            1.00000   0.00000   0.00000
           Y            0.00000   1.00000   0.00000
           Z            0.00000   0.00000   1.00000
 This molecule is an asymmetric top.
 Rotational symmetry number  1.
 Warning -- assumption of classical behavior for rotation
           may cause significant error
 Rotational temperatures (Kelvin)      0.15925     0.15925     0.15925
 Rotational constants (GHZ):           3.31814     3.31814     3.31813
 Zero-point vibrational energy      16351.2 (Joules/Mol)
                                    3.90803 (Kcal/Mol)
 Warning -- explicit consideration of   6 degrees of freedom as
           vibrations may cause significant error
 Vibrational temperatures:    528.64   528.67   667.47   667.50   667.55
          (Kelvin)            873.36

 Zero-point correction=                           0.006228 (Hartree/Particle)
 Thermal correction to Energy=                    0.010658
 Thermal correction to Enthalpy=                  0.011602
 Thermal correction to Gibbs Free Energy=        -0.022521
 Sum of electronic and zero-point Energies=          -1365.435602
 Sum of electronic and thermal Energies=             -1365.431172
 Sum of electronic and thermal Enthalpies=           -1365.430228
 Sum of electronic and thermal Free Energies=        -1365.464351

                     E (Thermal)             CV                S
                      KCal/Mol        Cal/Mol-Kelvin    Cal/Mol-Kelvin
 Total                    6.688             14.047             71.818
 Electronic               0.000              0.000              0.000
 Translational            0.889              2.981             40.357
 Rotational               0.889              2.981             26.578
 Vibrational              4.910              8.086              4.883
 Vibration     1          0.740              1.539              1.091
 Vibration     2          0.740              1.539              1.090
 Vibration     3          0.821              1.330              0.755
 Vibration     4          0.821              1.330              0.755
 Vibration     5          0.822              1.330              0.755
 Vibration     6          0.966              1.017              0.438

 Optimization completed.
    -- Stationary point found.
 Normal termination of Gaussian 09 at Thu Feb  8 15:28:59 2018.
