 Gaussian 09, Revision D.01,
 Gaussian 09:  AS64L-G09RevD.01 24-Apr-2013

 -------------------------------------------------
 # opt freq b3lyp/6-31(d) Integral(Grid=UltraFine)
 -------------------------------------------------

 -----
 Title
 -----
 Symbolic Z-matrix:
 Charge =  0 Multiplicity = 1

 SCF Done:  E(RB3LYP) =  -548.250960470     A.U. after   13 cycles
 SCF Done:  E(RB3LYP) =  -548.435586991     A.U. after   12 cycles
 SCF Done:  E(RB3LYP) =  -548.526048548     A.U. after   14 cycles
 SCF Done:  E(RB3LYP) =  -548.582342730     A.U. after   14 cycles
 SCF Done:  E(RB3LYP) =  -548.586786413     A.U. after   12 cycles
 SCF Done:  E(RB3LYP) =  -548.587447623     A.U. after   10 cycles
 SCF Done:  E(RB3LYP) =  -548.587487450     A.U. after    8 cycles
 Optimization completed.
    -- Stationary point found.
 Normal termination of Gaussian 09 at Tue Feb  6 11:27:30 2018.

 --------------------------------------------------------------------
 #N Geom=AllCheck Guess=TCheck SCRF=Check GenChk RB3LYP/6-31G(d) Freq
 --------------------------------------------------------------------

 Structure from the checkpoint file:  "/tmp/Gau-24310.chk"
 -----
 Title
 -----
 Charge =  0 Multiplicity = 1

                         Standard orientation:
 ---------------------------------------------------------------------
 Center     Atomic      Atomic             Coordinates (Angstroms)
 Number     Number       Type             X           Y           Z
 ---------------------------------------------------------------------
      1         16           0        0.000000    0.371099    0.000000
      2          8           0        1.261389   -0.370756    0.000000
      3          8           0       -1.261389   -0.371441    0.000000
 ---------------------------------------------------------------------

 SCF Done:  E(RB3LYP) =  -548.587487450     A.U. after    1 cycles

 The electronic state is 1-A'.
 Alpha  occ. eigenvalues --  -89.08312 -19.21142 -19.21137  -8.12305  -6.08685
 Alpha  occ. eigenvalues --   -6.08671  -6.08151  -1.13827  -1.04699  -0.64397
 Alpha  occ. eigenvalues --   -0.49076  -0.48961  -0.48739  -0.36618  -0.35409
 Alpha  occ. eigenvalues --   -0.33021
 Alpha virt. eigenvalues --   -0.13292   0.04759   0.06787   0.23846   0.28659
 Alpha virt. eigenvalues --    0.32734   0.39484   0.65023   0.65448   0.65460
 Alpha virt. eigenvalues --    0.76730   0.78951   0.92179   0.94270   0.99040

 Mulliken charges:
               1
     1  S    0.818655
     2  O   -0.409213
     3  O   -0.409442
 Sum of Mulliken charges =   0.00000

 Dipole moment (field-independent basis, Debye):
    X=              0.0011    Y=              1.7797    Z=              0.0000  Tot=              1.7797
 Quadrupole moment (field-independent basis, Debye-Ang):
   XX=            -26.7703   YY=            -22.3866   ZZ=            -20.5949
   XY=             -0.0013   XZ=              0.0000   YZ=              0.0000

  Exact polarizability:  29.105   0.006  15.929   0.000   0.000  13.098
 Approx polarizability:  73.168   0.026  24.609   0.000   0.000  19.614

                      1                      2                      3
                     A'                     A'                     A'
 Frequencies --    502.8528              1141.3745              1338.4076
 Red. masses --     18.5539                18.0125                20.3254
 Frc consts  --      2.7642                13.8255                21.4519
 IR Inten    --     33.9934                27.6319               165.1114

 - Thermochemistry -
 -------------------
 Temperature   298.150 Kelvin.  Pressure   1.00000 Atm.
 Atom     1 has atomic number 16 and mass  31.97207

 Molecular mass:    63.96190 amu.
 Principal axes and moments of inertia in atomic units:
                           1         2         3
     Eigenvalues --    31.45558 181.76382 213.21939
           X            1.00000  -0.00033   0.00000
           Y            0.00033   1.00000   0.00000
           Z            0.00000   0.00000   1.00000
 This molecule is an asymmetric top.
 Rotational symmetry number  1.
 Rotational temperatures (Kelvin)      2.75353     0.47652     0.40622
 Rotational constants (GHZ):          57.37429     9.92905     8.46425
 Zero-point vibrational energy      17840.1 (Joules/Mol)
                                    4.26389 (Kcal/Mol)
 Warning -- explicit consideration of   1 degrees of freedom as
           vibrations may cause significant error
 Vibrational temperatures:    723.49  1642.18  1925.67
          (Kelvin)

 Zero-point correction=                           0.006795 (Hartree/Particle)
 Thermal correction to Energy=                    0.009880
 Thermal correction to Enthalpy=                  0.010824
 Thermal correction to Gibbs Free Energy=        -0.018083
 Sum of electronic and zero-point Energies=           -548.580693
 Sum of electronic and thermal Energies=              -548.577607
 Sum of electronic and thermal Enthalpies=            -548.576663
 Sum of electronic and thermal Free Energies=         -548.605570

                     E (Thermal)             CV                S
                      KCal/Mol        Cal/Mol-Kelvin    Cal/Mol-Kelvin
 Total                    6.200              7.582             60.840
 Electronic               0.000              0.000              0.000
 Translational            0.889              2.981             38.386
 Rotational               0.889              2.981             21.727
 Vibrational              4.422              1.620              0.727
 Vibration     1          0.858              1.244              0.651

 Optimization completed.
    -- Stationary point found.
 Normal termination of Gaussian 09 at Tue Feb  6 11:27:46 2018.
